version 2
run RandomWPMobility-0-20130524-14:41:49-28754
attr configname RandomWPMobility
attr datetime 20130524-14:41:49
attr experiment RandomWPMobility
attr inifile omnetpp.ini
attr iterationvars "$0=4823, $1=9918, $2=14153, $3=13923, $4=15875, $5=5657, $6=24472, $7=18543, $8=13206"
attr iterationvars2 "$0=4823, $1=9918, $2=14153, $3=13923, $4=15875, $5=5657, $6=24472, $7=18543, $8=13206, $repetition=0"
attr measurement "$0=4823, $1=9918, $2=14153, $3=13923, $4=15875, $5=5657, $6=24472, $7=18543, $8=13206"
attr network Manet_Network
attr processid 28754
attr repetition 0
attr replication #0
attr resultdir results
attr runnumber 0
attr seedset 0

vector 3  Manet_Network.host[0].wlan[0].mac  RadioState  ETV
attr enum  "IDLE=0, RECV=1, SLEEP=3, TRANSMIT=2"
attr enumname  RadioState
vector 2  Manet_Network.host[0].wlan[0].mac  State  ETV
attr enum  "BACKOFF=3, DEFER=1, IDLE=0, RECEIVE=8, WAITACK=4, WAITBROADCAST=5, WAITCTS=6, WAITDIFS=2, WAITSIFS=7"
attr enumname  Ieee80211Mac
vector 11  Manet_Network.host[1].wlan[0].mac  RadioState  ETV
attr enum  "IDLE=0, RECV=1, SLEEP=3, TRANSMIT=2"
attr enumname  RadioState
vector 10  Manet_Network.host[1].wlan[0].mac  State  ETV
attr enum  "BACKOFF=3, DEFER=1, IDLE=0, RECEIVE=8, WAITACK=4, WAITBROADCAST=5, WAITCTS=6, WAITDIFS=2, WAITSIFS=7"
attr enumname  Ieee80211Mac
vector 19  Manet_Network.host[2].wlan[0].mac  RadioState  ETV
attr enum  "IDLE=0, RECV=1, SLEEP=3, TRANSMIT=2"
attr enumname  RadioState
vector 18  Manet_Network.host[2].wlan[0].mac  State  ETV
attr enum  "BACKOFF=3, DEFER=1, IDLE=0, RECEIVE=8, WAITACK=4, WAITBROADCAST=5, WAITCTS=6, WAITDIFS=2, WAITSIFS=7"
attr enumname  Ieee80211Mac
vector 27  Manet_Network.host[3].wlan[0].mac  RadioState  ETV
attr enum  "IDLE=0, RECV=1, SLEEP=3, TRANSMIT=2"
attr enumname  RadioState
vector 26  Manet_Network.host[3].wlan[0].mac  State  ETV
attr enum  "BACKOFF=3, DEFER=1, IDLE=0, RECEIVE=8, WAITACK=4, WAITBROADCAST=5, WAITCTS=6, WAITDIFS=2, WAITSIFS=7"
attr enumname  Ieee80211Mac
vector 35  Manet_Network.host[4].wlan[0].mac  RadioState  ETV
attr enum  "IDLE=0, RECV=1, SLEEP=3, TRANSMIT=2"
attr enumname  RadioState
vector 34  Manet_Network.host[4].wlan[0].mac  State  ETV
attr enum  "BACKOFF=3, DEFER=1, IDLE=0, RECEIVE=8, WAITACK=4, WAITBROADCAST=5, WAITCTS=6, WAITDIFS=2, WAITSIFS=7"
attr enumname  Ieee80211Mac
vector 15  Manet_Network.host[1].wlan[0].radio  snirVector  ETV
vector 12  Manet_Network.host[1].wlan[0].mac  ReceiveBcastVector  ETV
vector 23  Manet_Network.host[2].wlan[0].radio  snirVector  ETV
vector 20  Manet_Network.host[2].wlan[0].mac  ReceiveBcastVector  ETV
vector 39  Manet_Network.host[4].wlan[0].radio  snirVector  ETV
vector 36  Manet_Network.host[4].wlan[0].mac  ReceiveBcastVector  ETV
vector 7  Manet_Network.host[0].wlan[0].radio  snirVector  ETV
vector 4  Manet_Network.host[0].wlan[0].mac  ReceiveBcastVector  ETV
vector 29  Manet_Network.host[3].wlan[0].mac  "Contention Window"  ETV
vector 31  Manet_Network.host[3].wlan[0].radio  snirVector  ETV
vector 28  Manet_Network.host[3].wlan[0].mac  ReceiveBcastVector  ETV
vector 21  Manet_Network.host[2].wlan[0].mac  "Contention Window"  ETV
vector 37  Manet_Network.host[4].wlan[0].mac  "Contention Window"  ETV
vector 5  Manet_Network.host[0].wlan[0].mac  "Contention Window"  ETV
vector 13  Manet_Network.host[1].wlan[0].mac  "Contention Window"  ETV
vector 22  Manet_Network.host[2].wlan[0].radio  "MAC loss rate"  ETV
vector 14  Manet_Network.host[1].wlan[0].radio  "MAC loss rate"  ETV
vector 38  Manet_Network.host[4].wlan[0].radio  "MAC loss rate"  ETV
vector 30  Manet_Network.host[3].wlan[0].radio  "MAC loss rate"  ETV
vector 6  Manet_Network.host[0].wlan[0].radio  "MAC loss rate"  ETV
2	0	0	0
2	0	0	0
2	0	0	0
2	0	0	0
2	123	2.096456326682	0
2	123	2.096456326682	0
2	123	2.096456326682	0
2	123	2.096456326682	0
2	143	2.096498326682	0
2	143	2.096498326682	0
2	143	2.096498326682	0
2	143	2.096498326682	0
2	144	2.096498326682	0
2	144	2.096498326682	0
2	144	2.096498326682	0
2	144	2.096498326682	0
2	165	2.104502339601	0
2	165	2.104502339601	0
2	165	2.104502339601	0
2	165	2.104502339601	0
2	170	2.104544339601	0
2	170	2.104544339601	0
2	170	2.104544339601	0
2	170	2.104544339601	0
2	171	2.104544339601	0
2	171	2.104544339601	0
2	171	2.104544339601	0
2	171	2.104544339601	0
2	220	2.305475287982	0
2	220	2.305475287982	0
2	220	2.305475287982	0
2	220	2.305475287982	0
2	225	2.305517287982	0
2	225	2.305517287982	0
2	225	2.305517287982	0
2	225	2.305517287982	0
2	226	2.305517287982	0
2	226	2.305517287982	0
2	226	2.305517287982	0
2	226	2.305517287982	0
2	262	2.331415898399	0
2	262	2.331415898399	0
2	262	2.331415898399	2
2	262	2.331415898399	2
2	263	2.331443898399	2
2	263	2.331443898399	2
2	263	2.331443898399	5
2	263	2.331443898399	5
2	264	2.331443898399	5
2	264	2.331443898399	5
2	264	2.331443898399	5
2	264	2.331443898399	5
2	269	2.331485898399	5
2	269	2.331485898399	5
2	269	2.331485898399	5
2	269	2.331485898399	5
2	298	2.332149898398	5
2	298	2.332149898398	5
2	298	2.332149898398	2
2	298	2.332149898398	2
2	299	2.332177898398	2
2	299	2.332177898398	2
2	299	2.332177898398	3
2	299	2.332177898398	3
2	300	2.332222898398	3
2	300	2.332222898398	3
2	300	2.332222898398	0
2	300	2.332222898398	0
2	321	2.46280226283	0
2	321	2.46280226283	0
2	321	2.46280226283	0
2	321	2.46280226283	0
2	341	2.46284426283	0
2	341	2.46284426283	0
2	341	2.46284426283	0
2	341	2.46284426283	0
2	342	2.46284426283	0
2	342	2.46284426283	0
2	342	2.46284426283	0
2	342	2.46284426283	0
2	429	3.736845809816	0
2	429	3.736845809816	0
2	429	3.736845809816	0
2	429	3.736845809816	0
2	439	3.736887809816	0
2	439	3.736887809816	0
2	439	3.736887809816	0
2	439	3.736887809816	0
2	440	3.736887809816	0
2	440	3.736887809816	0
2	440	3.736887809816	0
2	440	3.736887809816	0
2	475	3.795914429322	0
2	475	3.795914429322	0
2	475	3.795914429322	0
2	475	3.795914429322	0
2	490	3.795956429322	0
2	490	3.795956429322	0
2	490	3.795956429322	0
2	490	3.795956429322	0
2	491	3.795956429322	0
2	491	3.795956429322	0
2	491	3.795956429322	0
2	491	3.795956429322	0
2	514	3.807959539939	0
2	514	3.807959539939	0
2	514	3.807959539939	0
2	514	3.807959539939	0
2	519	3.808001539939	0
2	519	3.808001539939	0
2	519	3.808001539939	0
2	519	3.808001539939	0
2	520	3.808001539939	0
2	520	3.808001539939	0
2	520	3.808001539939	0
2	520	3.808001539939	0
2	562	4.028924529324	0
2	562	4.028924529324	0
2	562	4.028924529324	2
2	562	4.028924529324	2
2	563	4.028952529324	2
2	563	4.028952529324	2
2	563	4.028952529324	5
2	563	4.028952529324	5
2	564	4.028952529324	5
2	564	4.028952529324	5
2	564	4.028952529324	5
2	564	4.028952529324	5
2	569	4.028998529324	5
2	569	4.028998529324	5
2	569	4.028998529324	5
2	569	4.028998529324	5
2	594	4.029850529323	5
2	594	4.029850529323	5
2	594	4.029850529323	2
2	594	4.029850529323	2
2	595	4.029878529323	2
2	595	4.029878529323	2
2	595	4.029878529323	3
2	595	4.029878529323	3
2	596	4.030130529323	3
2	596	4.030130529323	3
2	596	4.030130529323	0
2	596	4.030130529323	0
2	612	4.096796822023	0
2	612	4.096796822023	0
2	612	4.096796822023	0
2	612	4.096796822023	0
2	627	4.096842822023	0
2	627	4.096842822023	0
2	627	4.096842822023	0
2	627	4.096842822023	0
2	628	4.096842822023	0
2	628	4.096842822023	0
2	628	4.096842822023	0
2	628	4.096842822023	0
2	709	5.363796552555	0
2	709	5.363796552555	0
2	709	5.363796552555	0
2	709	5.363796552555	0
2	719	5.363838552555	0
2	719	5.363838552555	0
2	719	5.363838552555	0
2	719	5.363838552555	0
2	720	5.363838552555	0
2	720	5.363838552555	0
2	720	5.363838552555	0
2	720	5.363838552555	0
2	757	5.55565214227	0
2	757	5.55565214227	0
2	757	5.55565214227	2
2	757	5.55565214227	2
2	758	5.55568014227	2
2	758	5.55568014227	2
2	758	5.55568014227	5
2	758	5.55568014227	5
2	759	5.55568014227	5
2	759	5.55568014227	5
2	759	5.55568014227	5
2	759	5.55568014227	5
2	764	5.55572214227	5
2	764	5.55572214227	5
2	764	5.55572214227	5
2	764	5.55572214227	5
2	790	5.556546142269	5
2	790	5.556546142269	5
2	790	5.556546142269	2
2	790	5.556546142269	2
2	791	5.556574142269	2
2	791	5.556574142269	2
2	791	5.556574142269	3
2	791	5.556574142269	3
2	792	5.556637142269	3
2	792	5.556637142269	3
2	792	5.556637142269	0
2	792	5.556637142269	0
2	813	5.793871086429	0
2	813	5.793871086429	0
2	813	5.793871086429	0
2	813	5.793871086429	0
2	828	5.793913086429	0
2	828	5.793913086429	0
2	828	5.793913086429	0
2	828	5.793913086429	0
2	829	5.793913086429	0
2	829	5.793913086429	0
2	829	5.793913086429	0
2	829	5.793913086429	0
2	853	5.809025206528	0
2	853	5.809025206528	0
2	853	5.809025206528	0
2	853	5.809025206528	0
2	863	5.809067206528	0
2	863	5.809067206528	0
2	863	5.809067206528	0
2	863	5.809067206528	0
2	864	5.809067206528	0
2	864	5.809067206528	0
2	864	5.809067206528	0
2	864	5.809067206528	0
2	900	5.980478764047	0
2	900	5.980478764047	0
2	900	5.980478764047	0
2	900	5.980478764047	0
2	905	5.980520764047	0
2	905	5.980520764047	0
2	905	5.980520764047	0
2	905	5.980520764047	0
2	906	5.980520764047	0
2	906	5.980520764047	0
2	906	5.980520764047	0
2	906	5.980520764047	0
2	989	7.165573292412	0
2	989	7.165573292412	0
2	989	7.165573292412	2
2	989	7.165573292412	2
2	990	7.165601292412	2
2	990	7.165601292412	2
2	990	7.165601292412	5
2	990	7.165601292412	5
2	991	7.165601292412	5
2	991	7.165601292412	5
2	991	7.165601292412	5
2	991	7.165601292412	5
2	996	7.165643292412	5
2	996	7.165643292412	5
2	996	7.165643292412	5
2	996	7.165643292412	5
2	1021	7.166467292411	5
2	1021	7.166467292411	5
2	1021	7.166467292411	2
2	1021	7.166467292411	2
2	1022	7.166495292411	2
2	1022	7.166495292411	2
2	1022	7.166495292411	3
2	1022	7.166495292411	3
2	1023	7.166630292411	3
2	1023	7.166630292411	3
2	1023	7.166630292411	0
2	1023	7.166630292411	0
2	1040	7.319748692476	0
2	1040	7.319748692476	0
2	1040	7.319748692476	0
2	1040	7.319748692476	0
2	1050	7.319790692476	0
2	1050	7.319790692476	0
2	1050	7.319790692476	0
2	1050	7.319790692476	0
2	1051	7.319790692476	0
2	1051	7.319790692476	0
2	1051	7.319790692476	0
2	1051	7.319790692476	0
2	1095	7.464916228181	0
2	1095	7.464916228181	0
2	1095	7.464916228181	0
2	1095	7.464916228181	0
2	1100	7.464958228181	0
2	1100	7.464958228181	0
2	1100	7.464958228181	0
2	1100	7.464958228181	0
2	1101	7.464958228181	0
2	1101	7.464958228181	0
2	1101	7.464958228181	0
2	1101	7.464958228181	0
2	1128	7.465148654305	0
2	1128	7.465148654305	0
2	1128	7.465148654305	0
2	1128	7.465148654305	0
2	1138	7.465190654305	0
2	1138	7.465190654305	0
2	1138	7.465190654305	0
2	1138	7.465190654305	0
2	1139	7.465190654305	0
2	1139	7.465190654305	0
2	1139	7.465190654305	0
2	1139	7.465190654305	0
2	1180	7.698201222969	0
2	1180	7.698201222969	0
2	1180	7.698201222969	0
2	1180	7.698201222969	0
2	1190	7.698243222969	0
2	1190	7.698243222969	0
2	1190	7.698243222969	0
2	1190	7.698243222969	0
2	1191	7.698243222969	0
2	1191	7.698243222969	0
2	1191	7.698243222969	0
2	1191	7.698243222969	0
2	1295	8.970089446056	0
2	1295	8.970089446056	0
2	1295	8.970089446056	2
2	1295	8.970089446056	2
2	1296	8.970117446056	2
2	1296	8.970117446056	2
2	1296	8.970117446056	5
2	1296	8.970117446056	5
2	1297	8.970117446056	5
2	1297	8.970117446056	5
2	1297	8.970117446056	5
2	1297	8.970117446056	5
2	1302	8.970159446056	5
2	1302	8.970159446056	5
2	1302	8.970159446056	5
2	1302	8.970159446056	5
2	1327	8.970983446055	5
2	1327	8.970983446055	5
2	1327	8.970983446055	2
2	1327	8.970983446055	2
2	1328	8.971011446055	2
2	1328	8.971011446055	2
2	1328	8.971011446055	3
2	1328	8.971011446055	3
2	1329	8.971164446055	3
2	1329	8.971164446055	3
2	1329	8.971164446055	0
2	1329	8.971164446055	0
2	1341	9.024831689047	0
2	1341	9.024831689047	0
2	1341	9.024831689047	0
2	1341	9.024831689047	0
2	1351	9.024873689047	0
2	1351	9.024873689047	0
2	1351	9.024873689047	0
2	1351	9.024873689047	0
2	1352	9.024873689047	0
2	1352	9.024873689047	0
2	1352	9.024873689047	0
2	1352	9.024873689047	0
2	1386	9.099090959807	0
2	1386	9.099090959807	0
2	1386	9.099090959807	0
2	1386	9.099090959807	0
2	1391	9.099132959807	0
2	1391	9.099132959807	0
2	1391	9.099132959807	0
2	1391	9.099132959807	0
2	1392	9.099132959807	0
2	1392	9.099132959807	0
2	1392	9.099132959807	0
2	1392	9.099132959807	0
2	1450	9.519202495023	0
2	1450	9.519202495023	0
2	1450	9.519202495023	0
2	1450	9.519202495023	0
2	1460	9.519244495023	0
2	1460	9.519244495023	0
2	1460	9.519244495023	0
2	1460	9.519244495023	0
2	1461	9.519244495023	0
2	1461	9.519244495023	0
2	1461	9.519244495023	0
2	1461	9.519244495023	0
2	1500	9.663793004053	0
2	1500	9.663793004053	0
2	1500	9.663793004053	0
2	1500	9.663793004053	0
2	1510	9.663835004053	0
2	1510	9.663835004053	0
2	1510	9.663835004053	0
2	1510	9.663835004053	0
2	1511	9.663835004053	0
2	1511	9.663835004053	0
2	1511	9.663835004053	0
2	1511	9.663835004053	0
2	1593	10.497008578621	0
2	1593	10.497008578621	0
2	1593	10.497008578621	2
2	1593	10.497008578621	2
2	1594	10.497036578621	2
2	1594	10.497036578621	2
2	1594	10.497036578621	5
2	1594	10.497036578621	5
2	1595	10.497036578621	5
2	1595	10.497036578621	5
2	1595	10.497036578621	5
2	1595	10.497036578621	5
2	1600	10.497078578621	5
2	1600	10.497078578621	5
2	1600	10.497078578621	5
2	1600	10.497078578621	5
2	1625	10.49790257862	5
2	1625	10.49790257862	5
2	1625	10.49790257862	2
2	1625	10.49790257862	2
2	1626	10.49793057862	2
2	1626	10.49793057862	2
2	1626	10.49793057862	3
2	1626	10.49793057862	3
2	1627	10.49816457862	3
2	1627	10.49816457862	3
2	1627	10.49816457862	0
2	1627	10.49816457862	0
2	1642	10.627092071556	0
2	1642	10.627092071556	0
2	1642	10.627092071556	0
2	1642	10.627092071556	0
2	1647	10.627134071556	0
2	1647	10.627134071556	0
2	1647	10.627134071556	0
2	1647	10.627134071556	0
2	1648	10.627134071556	0
2	1648	10.627134071556	0
2	1648	10.627134071556	0
2	1648	10.627134071556	0
2	1702	11.006769575083	0
2	1702	11.006769575083	0
2	1702	11.006769575083	0
2	1702	11.006769575083	0
2	1707	11.006811575083	0
2	1707	11.006811575083	0
2	1707	11.006811575083	0
2	1707	11.006811575083	0
2	1708	11.006811575083	0
2	1708	11.006811575083	0
2	1708	11.006811575083	0
2	1708	11.006811575083	0
2	1765	11.364824912119	0
2	1765	11.364824912119	0
2	1765	11.364824912119	0
2	1765	11.364824912119	0
2	1780	11.364866912119	0
2	1780	11.364866912119	0
2	1780	11.364866912119	0
2	1780	11.364866912119	0
2	1781	11.364866912119	0
2	1781	11.364866912119	0
2	1781	11.364866912119	0
2	1781	11.364866912119	0
2	1806	11.371164118984	0
2	1806	11.371164118984	0
2	1806	11.371164118984	0
2	1806	11.371164118984	0
2	1821	11.371206118984	0
2	1821	11.371206118984	0
2	1821	11.371206118984	0
2	1821	11.371206118984	0
2	1822	11.371206118984	0
2	1822	11.371206118984	0
2	1822	11.371206118984	0
2	1822	11.371206118984	0
2	1890	12.192478524058	0
2	1890	12.192478524058	0
2	1890	12.192478524058	2
2	1890	12.192478524058	2
2	1891	12.192506524058	2
2	1891	12.192506524058	2
2	1891	12.192506524058	5
2	1891	12.192506524058	5
2	1892	12.192506524058	5
2	1892	12.192506524058	5
2	1892	12.192506524058	5
2	1892	12.192506524058	5
2	1897	12.192548524058	5
2	1897	12.192548524058	5
2	1897	12.192548524058	5
2	1897	12.192548524058	5
2	1922	12.193372524057	5
2	1922	12.193372524057	5
2	1922	12.193372524057	2
2	1922	12.193372524057	2
2	1923	12.193400524057	2
2	1923	12.193400524057	2
2	1923	12.193400524057	3
2	1923	12.193400524057	3
2	1924	12.193643524057	3
2	1924	12.193643524057	3
2	1924	12.193643524057	0
2	1924	12.193643524057	0
2	1937	12.26847914036	0
2	1937	12.26847914036	0
2	1937	12.26847914036	0
2	1937	12.26847914036	0
2	1942	12.26852114036	0
2	1942	12.26852114036	0
2	1942	12.26852114036	0
2	1942	12.26852114036	0
2	1943	12.26852114036	0
2	1943	12.26852114036	0
2	1943	12.26852114036	0
2	1943	12.26852114036	0
2	1987	12.486587093189	0
2	1987	12.486587093189	0
2	1987	12.486587093189	0
2	1987	12.486587093189	0
2	1992	12.486629093189	0
2	1992	12.486629093189	0
2	1992	12.486629093189	0
2	1992	12.486629093189	0
2	1993	12.486629093189	0
2	1993	12.486629093189	0
2	1993	12.486629093189	0
2	1993	12.486629093189	0
2	2038	12.889701245706	0
2	2038	12.889701245706	0
2	2038	12.889701245706	0
2	2038	12.889701245706	0
2	2053	12.889743245706	0
2	2053	12.889743245706	0
2	2053	12.889743245706	0
2	2053	12.889743245706	0
2	2054	12.889743245706	0
2	2054	12.889743245706	0
2	2054	12.889743245706	0
2	2054	12.889743245706	0
2	2082	13.038544627865	0
2	2082	13.038544627865	0
2	2082	13.038544627865	0
2	2082	13.038544627865	0
2	2097	13.038586627865	0
2	2097	13.038586627865	0
2	2097	13.038586627865	0
2	2097	13.038586627865	0
2	2098	13.038586627865	0
2	2098	13.038586627865	0
2	2098	13.038586627865	0
2	2098	13.038586627865	0
2	2164	13.964708764924	0
2	2164	13.964708764924	0
2	2164	13.964708764924	2
2	2164	13.964708764924	2
2	2165	13.964736764924	2
2	2165	13.964736764924	2
2	2165	13.964736764924	5
2	2165	13.964736764924	5
2	2166	13.964736764924	5
2	2166	13.964736764924	5
2	2166	13.964736764924	5
2	2166	13.964736764924	5
2	2171	13.964778764924	5
2	2171	13.964778764924	5
2	2171	13.964778764924	5
2	2171	13.964778764924	5
2	2196	13.965602764923	5
2	2196	13.965602764923	5
2	2196	13.965602764923	2
2	2196	13.965602764923	2
2	2197	13.965630764923	2
2	2197	13.965630764923	2
2	2197	13.965630764923	3
2	2197	13.965630764923	3
2	2198	13.965729764923	3
2	2198	13.965729764923	3
2	2198	13.965729764923	0
2	2198	13.965729764923	0
2	2209	14.03453183026	0
2	2209	14.03453183026	0
2	2209	14.03453183026	0
2	2209	14.03453183026	0
2	2214	14.03457383026	0
2	2214	14.03457383026	0
2	2214	14.03457383026	0
2	2214	14.03457383026	0
2	2215	14.03457383026	0
2	2215	14.03457383026	0
2	2215	14.03457383026	0
2	2215	14.03457383026	0
2	2252	14.144584154062	0
2	2252	14.144584154062	0
2	2252	14.144584154062	0
2	2252	14.144584154062	0
2	2257	14.144626154062	0
2	2257	14.144626154062	0
2	2257	14.144626154062	0
2	2257	14.144626154062	0
2	2258	14.144626154062	0
2	2258	14.144626154062	0
2	2258	14.144626154062	0
2	2258	14.144626154062	0
2	2301	14.452277406607	0
2	2301	14.452277406607	0
2	2301	14.452277406607	0
2	2301	14.452277406607	0
2	2311	14.452319406607	0
2	2311	14.452319406607	0
2	2311	14.452319406607	0
2	2311	14.452319406607	0
2	2312	14.452319406607	0
2	2312	14.452319406607	0
2	2312	14.452319406607	0
2	2312	14.452319406607	0
2	2381	15.284867421696	0
2	2381	15.284867421696	0
2	2381	15.284867421696	0
2	2381	15.284867421696	0
2	2401	15.284909421696	0
2	2401	15.284909421696	0
2	2401	15.284909421696	0
2	2401	15.284909421696	0
2	2402	15.284909421696	0
2	2402	15.284909421696	0
2	2402	15.284909421696	0
2	2402	15.284909421696	0
2	2421	15.458048942386	0
2	2421	15.458048942386	0
2	2421	15.458048942386	2
2	2421	15.458048942386	2
2	2422	15.458076942386	2
2	2422	15.458076942386	2
2	2422	15.458076942386	5
2	2422	15.458076942386	5
2	2423	15.458076942386	5
2	2423	15.458076942386	5
2	2423	15.458076942386	5
2	2423	15.458076942386	5
2	2428	15.458118942386	5
2	2428	15.458118942386	5
2	2428	15.458118942386	5
2	2428	15.458118942386	5
2	2454	15.458942942385	5
2	2454	15.458942942385	5
2	2454	15.458942942385	2
2	2454	15.458942942385	2
2	2455	15.458970942385	2
2	2455	15.458970942385	2
2	2455	15.458970942385	3
2	2455	15.458970942385	3
2	2456	15.459051942385	3
2	2456	15.459051942385	3
2	2456	15.459051942385	0
2	2456	15.459051942385	0
2	2482	15.826901495636	0
2	2482	15.826901495636	0
2	2482	15.826901495636	0
2	2482	15.826901495636	0
2	2492	15.826943495636	0
2	2492	15.826943495636	0
2	2492	15.826943495636	0
2	2492	15.826943495636	0
2	2493	15.826943495636	0
2	2493	15.826943495636	0
2	2493	15.826943495636	0
2	2493	15.826943495636	0
2	2527	15.909645291307	0
2	2527	15.909645291307	0
2	2527	15.909645291307	0
2	2527	15.909645291307	0
2	2537	15.909687291307	0
2	2537	15.909687291307	0
2	2537	15.909687291307	0
2	2537	15.909687291307	0
2	2538	15.909687291307	0
2	2538	15.909687291307	0
2	2538	15.909687291307	0
2	2538	15.909687291307	0
2	2584	16.417855194354	0
2	2584	16.417855194354	0
2	2584	16.417855194354	0
2	2584	16.417855194354	0
2	2594	16.417897194354	0
2	2594	16.417897194354	0
2	2594	16.417897194354	0
2	2594	16.417897194354	0
2	2595	16.417897194354	0
2	2595	16.417897194354	0
2	2595	16.417897194354	0
2	2595	16.417897194354	0
2	2650	16.954292102624	0
2	2650	16.954292102624	0
2	2650	16.954292102624	0
2	2650	16.954292102624	0
2	2670	16.954334102624	0
2	2670	16.954334102624	0
2	2670	16.954334102624	0
2	2670	16.954334102624	0
2	2671	16.954334102624	0
2	2671	16.954334102624	0
2	2671	16.954334102624	0
2	2671	16.954334102624	0
2	2720	17.604400666662	0
2	2720	17.604400666662	0
2	2720	17.604400666662	0
2	2720	17.604400666662	0
2	2730	17.604442666662	0
2	2730	17.604442666662	0
2	2730	17.604442666662	0
2	2730	17.604442666662	0
2	2731	17.604442666662	0
2	2731	17.604442666662	0
2	2731	17.604442666662	0
2	2731	17.604442666662	0
2	2759	17.671234280806	0
2	2759	17.671234280806	0
2	2759	17.671234280806	2
2	2759	17.671234280806	2
2	2760	17.671262280806	2
2	2760	17.671262280806	2
2	2760	17.671262280806	5
2	2760	17.671262280806	5
2	2761	17.671262280806	5
2	2761	17.671262280806	5
2	2761	17.671262280806	5
2	2761	17.671262280806	5
2	2766	17.671304280806	5
2	2766	17.671304280806	5
2	2766	17.671304280806	5
2	2766	17.671304280806	5
2	2791	17.672128280805	5
2	2791	17.672128280805	5
2	2791	17.672128280805	2
2	2791	17.672128280805	2
2	2792	17.672156280805	2
2	2792	17.672156280805	2
2	2792	17.672156280805	3
2	2792	17.672156280805	3
2	2793	17.672192280805	3
2	2793	17.672192280805	3
2	2793	17.672192280805	0
2	2793	17.672192280805	0
2	2811	17.855359003348	0
2	2811	17.855359003348	0
2	2811	17.855359003348	0
2	2811	17.855359003348	0
2	2821	17.855401003348	0
2	2821	17.855401003348	0
2	2821	17.855401003348	0
2	2821	17.855401003348	0
2	2822	17.855401003348	0
2	2822	17.855401003348	0
2	2822	17.855401003348	0
2	2822	17.855401003348	0
2	2862	18.157020465001	0
2	2862	18.157020465001	0
2	2862	18.157020465001	0
2	2862	18.157020465001	0
2	2872	18.157062465001	0
2	2872	18.157062465001	0
2	2872	18.157062465001	0
2	2872	18.157062465001	0
2	2873	18.157062465001	0
2	2873	18.157062465001	0
2	2873	18.157062465001	0
2	2873	18.157062465001	0
2	2932	18.771688155369	0
2	2932	18.771688155369	0
2	2932	18.771688155369	0
2	2932	18.771688155369	0
2	2952	18.771730155369	0
2	2952	18.771730155369	0
2	2952	18.771730155369	0
2	2952	18.771730155369	0
2	2953	18.771730155369	0
2	2953	18.771730155369	0
2	2953	18.771730155369	0
2	2953	18.771730155369	0
2	2992	19.390690789389	0
2	2992	19.390690789389	0
2	2992	19.390690789389	0
2	2992	19.390690789389	0
2	3002	19.390732789389	0
2	3002	19.390732789389	0
2	3002	19.390732789389	0
2	3002	19.390732789389	0
2	3003	19.390732789389	0
2	3003	19.390732789389	0
2	3003	19.390732789389	0
2	3003	19.390732789389	0
2	3029	19.407929984508	0
2	3029	19.407929984508	0
2	3029	19.407929984508	2
2	3029	19.407929984508	2
2	3030	19.407957984508	2
2	3030	19.407957984508	2
2	3030	19.407957984508	5
2	3030	19.407957984508	5
2	3031	19.407957984508	5
2	3031	19.407957984508	5
2	3031	19.407957984508	5
2	3031	19.407957984508	5
2	3036	19.407999984508	5
2	3036	19.407999984508	5
2	3036	19.407999984508	5
2	3036	19.407999984508	5
2	3061	19.408823984507	5
2	3061	19.408823984507	5
2	3061	19.408823984507	2
2	3061	19.408823984507	2
2	3062	19.408851984507	2
2	3062	19.408851984507	2
2	3062	19.408851984507	3
2	3062	19.408851984507	3
2	3063	19.409130984507	3
2	3063	19.409130984507	3
2	3063	19.409130984507	0
2	3063	19.409130984507	0
2	3082	19.684432747631	0
2	3082	19.684432747631	0
2	3082	19.684432747631	0
2	3082	19.684432747631	0
2	3092	19.684474747631	0
2	3092	19.684474747631	0
2	3092	19.684474747631	0
2	3092	19.684474747631	0
2	3093	19.684474747631	0
2	3093	19.684474747631	0
2	3093	19.684474747631	0
2	3093	19.684474747631	0
2	3127	19.821799186276	0
2	3127	19.821799186276	0
2	3127	19.821799186276	0
2	3127	19.821799186276	0
2	3142	19.821841186276	0
2	3142	19.821841186276	0
2	3142	19.821841186276	0
2	3142	19.821841186276	0
2	3143	19.821841186276	0
2	3143	19.821841186276	0
2	3143	19.821841186276	0
2	3143	19.821841186276	0
2	3193	20.330232581449	0
2	3193	20.330232581449	0
2	3193	20.330232581449	0
2	3193	20.330232581449	0
2	3213	20.330274581449	0
2	3213	20.330274581449	0
2	3213	20.330274581449	0
2	3213	20.330274581449	0
2	3214	20.330274581449	0
2	3214	20.330274581449	0
2	3214	20.330274581449	0
2	3214	20.330274581449	0
2	3248	21.014814601983	0
2	3248	21.014814601983	0
2	3248	21.014814601983	2
2	3248	21.014814601983	2
2	3249	21.014842601983	2
2	3249	21.014842601983	2
2	3249	21.014842601983	5
2	3249	21.014842601983	5
2	3250	21.014842601983	5
2	3250	21.014842601983	5
2	3250	21.014842601983	5
2	3250	21.014842601983	5
2	3255	21.014884601983	5
2	3255	21.014884601983	5
2	3255	21.014884601983	5
2	3255	21.014884601983	5
2	3280	21.015708601982	5
2	3280	21.015708601982	5
2	3280	21.015708601982	2
2	3280	21.015708601982	2
2	3281	21.015736601982	2
2	3281	21.015736601982	2
2	3281	21.015736601982	3
2	3281	21.015736601982	3
2	3282	21.015799601982	3
2	3282	21.015799601982	3
2	3282	21.015799601982	0
2	3282	21.015799601982	0
2	3295	21.072215543426	0
2	3295	21.072215543426	0
2	3295	21.072215543426	0
2	3295	21.072215543426	0
2	3310	21.072257543426	0
2	3310	21.072257543426	0
2	3310	21.072257543426	0
2	3310	21.072257543426	0
2	3311	21.072257543426	0
2	3311	21.072257543426	0
2	3311	21.072257543426	0
2	3311	21.072257543426	0
2	3340	21.240029921166	0
2	3340	21.240029921166	0
2	3340	21.240029921166	0
2	3340	21.240029921166	0
2	3355	21.240071921166	0
2	3355	21.240071921166	0
2	3355	21.240071921166	0
2	3355	21.240071921166	0
2	3356	21.240071921166	0
2	3356	21.240071921166	0
2	3356	21.240071921166	0
2	3356	21.240071921166	0
2	3390	21.464170235998	0
2	3390	21.464170235998	0
2	3390	21.464170235998	0
2	3390	21.464170235998	0
2	3405	21.464212235998	0
2	3405	21.464212235998	0
2	3405	21.464212235998	0
2	3405	21.464212235998	0
2	3406	21.464212235998	0
2	3406	21.464212235998	0
2	3406	21.464212235998	0
2	3406	21.464212235998	0
2	3457	22.286014828534	0
2	3457	22.286014828534	0
2	3457	22.286014828534	0
2	3457	22.286014828534	0
2	3477	22.286056828534	0
2	3477	22.286056828534	0
2	3477	22.286056828534	0
2	3477	22.286056828534	0
2	3478	22.286056828534	0
2	3478	22.286056828534	0
2	3478	22.286056828534	0
2	3478	22.286056828534	0
2	3497	22.539273944572	0
2	3497	22.539273944572	0
2	3497	22.539273944572	2
2	3497	22.539273944572	2
2	3498	22.539301944572	2
2	3498	22.539301944572	2
2	3498	22.539301944572	5
2	3498	22.539301944572	5
2	3499	22.539301944572	5
2	3499	22.539301944572	5
2	3499	22.539301944572	5
2	3499	22.539301944572	5
2	3504	22.539343944572	5
2	3504	22.539343944572	5
2	3504	22.539343944572	5
2	3504	22.539343944572	5
2	3529	22.540167944571	5
2	3529	22.540167944571	5
2	3529	22.540167944571	2
2	3529	22.540167944571	2
2	3530	22.540195944571	2
2	3530	22.540195944571	2
2	3530	22.540195944571	3
2	3530	22.540195944571	3
2	3531	22.540312944571	3
2	3531	22.540312944571	3
2	3531	22.540312944571	0
2	3531	22.540312944571	0
2	3554	22.95258245158	0
2	3554	22.95258245158	0
2	3554	22.95258245158	0
2	3554	22.95258245158	0
2	3569	22.95262445158	0
2	3569	22.95262445158	0
2	3569	22.95262445158	0
2	3569	22.95262445158	0
2	3570	22.95262445158	0
2	3570	22.95262445158	0
2	3570	22.95262445158	0
2	3570	22.95262445158	0
2	3601	23.070577801646	0
2	3601	23.070577801646	0
2	3601	23.070577801646	0
2	3601	23.070577801646	0
2	3616	23.070619801646	0
2	3616	23.070619801646	0
2	3616	23.070619801646	0
2	3616	23.070619801646	0
2	3617	23.070619801646	0
2	3617	23.070619801646	0
2	3617	23.070619801646	0
2	3617	23.070619801646	0
2	3648	23.267007208171	0
2	3648	23.267007208171	0
2	3648	23.267007208171	0
2	3648	23.267007208171	0
2	3668	23.267049208171	0
2	3668	23.267049208171	0
2	3668	23.267049208171	0
2	3668	23.267049208171	0
2	3669	23.267049208171	0
2	3669	23.267049208171	0
2	3669	23.267049208171	0
2	3669	23.267049208171	0
2	3704	23.83425804007	0
2	3704	23.83425804007	0
2	3704	23.83425804007	2
2	3704	23.83425804007	2
2	3705	23.83428604007	2
2	3705	23.83428604007	2
2	3705	23.83428604007	5
2	3705	23.83428604007	5
2	3706	23.83428604007	5
2	3706	23.83428604007	5
2	3706	23.83428604007	5
2	3706	23.83428604007	5
2	3711	23.83432804007	5
2	3711	23.83432804007	5
2	3711	23.83432804007	5
2	3711	23.83432804007	5
2	3736	23.835152040069	5
2	3736	23.835152040069	5
2	3736	23.835152040069	2
2	3736	23.835152040069	2
2	3737	23.835180040069	2
2	3737	23.835180040069	2
2	3737	23.835180040069	3
2	3737	23.835180040069	3
2	3738	23.835288040069	3
2	3738	23.835288040069	3
2	3738	23.835288040069	0
2	3738	23.835288040069	0
2	3758	23.889377535703	0
2	3758	23.889377535703	0
2	3758	23.889377535703	0
2	3758	23.889377535703	0
2	3778	23.889419535703	0
2	3778	23.889419535703	0
2	3778	23.889419535703	0
2	3778	23.889419535703	0
2	3779	23.889419535703	0
2	3779	23.889419535703	0
2	3779	23.889419535703	0
2	3779	23.889419535703	0
2	3846	24.809574599186	0
2	3846	24.809574599186	0
2	3846	24.809574599186	0
2	3846	24.809574599186	0
2	3861	24.809616599186	0
2	3861	24.809616599186	0
2	3861	24.809616599186	0
2	3861	24.809616599186	0
2	3862	24.809616599186	0
2	3862	24.809616599186	0
2	3862	24.809616599186	0
2	3862	24.809616599186	0
2	3895	24.978912893307	0
2	3895	24.978912893307	0
2	3895	24.978912893307	0
2	3895	24.978912893307	0
2	3915	24.978954893307	0
2	3915	24.978954893307	0
2	3915	24.978954893307	0
2	3915	24.978954893307	0
2	3916	24.978954893307	0
2	3916	24.978954893307	0
2	3916	24.978954893307	0
2	3916	24.978954893307	0
2	3946	25.054478258793	0
2	3946	25.054478258793	0
2	3946	25.054478258793	0
2	3946	25.054478258793	0
2	3966	25.054520258793	0
2	3966	25.054520258793	0
2	3966	25.054520258793	0
2	3966	25.054520258793	0
2	3967	25.054520258793	0
2	3967	25.054520258793	0
2	3967	25.054520258793	0
2	3967	25.054520258793	0
2	4000	25.337511381707	0
2	4000	25.337511381707	0
2	4000	25.337511381707	0
2	4000	25.337511381707	0
2	4020	25.337553381707	0
2	4020	25.337553381707	0
2	4020	25.337553381707	0
2	4020	25.337553381707	0
2	4021	25.337553381707	0
2	4021	25.337553381707	0
2	4021	25.337553381707	0
2	4021	25.337553381707	0
2	4051	25.462451008621	0
2	4051	25.462451008621	0
2	4051	25.462451008621	2
2	4051	25.462451008621	2
2	4052	25.462479008621	2
2	4052	25.462479008621	2
2	4052	25.462479008621	5
2	4052	25.462479008621	5
2	4053	25.462479008621	5
2	4053	25.462479008621	5
2	4053	25.462479008621	5
2	4053	25.462479008621	5
2	4058	25.462521008621	5
2	4058	25.462521008621	5
2	4058	25.462521008621	5