version 2
run General-0-20130410-20:17:20-30691
attr configname General
attr datetime 20130410-20:17:20
attr experiment General
attr inifile omnetpp.ini
attr iterationvars ""
attr iterationvars2 $repetition=0
attr measurement ""
attr network inet.examples.adhoc.net80211_aodv.Net80211_aodv
attr processid 30691
attr repetition 0
attr replication #0
attr resultdir results
attr runnumber 0
attr seedset 0

vector 5  Net80211_aodv.fixhost[0].wlan.mac  RadioState  ETV
attr enum  "IDLE=0, RECV=1, SLEEP=3, TRANSMIT=2"
attr enumname  RadioState
vector 4  Net80211_aodv.fixhost[0].wlan.mac  State  ETV
attr enum  "BACKOFF=3, DEFER=1, IDLE=0, RECEIVE=8, WAITACK=4, WAITBROADCAST=5, WAITCTS=6, WAITDIFS=2, WAITSIFS=7"
attr enumname  Ieee80211Mac
vector 15  Net80211_aodv.host[0].wlan.mac  RadioState  ETV
attr enum  "IDLE=0, RECV=1, SLEEP=3, TRANSMIT=2"
attr enumname  RadioState
vector 14  Net80211_aodv.host[0].wlan.mac  State  ETV
attr enum  "BACKOFF=3, DEFER=1, IDLE=0, RECEIVE=8, WAITACK=4, WAITBROADCAST=5, WAITCTS=6, WAITDIFS=2, WAITSIFS=7"
attr enumname  Ieee80211Mac
vector 25  Net80211_aodv.host[1].wlan.mac  RadioState  ETV
attr enum  "IDLE=0, RECV=1, SLEEP=3, TRANSMIT=2"
attr enumname  RadioState
vector 24  Net80211_aodv.host[1].wlan.mac  State  ETV
attr enum  "BACKOFF=3, DEFER=1, IDLE=0, RECEIVE=8, WAITACK=4, WAITBROADCAST=5, WAITCTS=6, WAITDIFS=2, WAITSIFS=7"
attr enumname  Ieee80211Mac
vector 35  Net80211_aodv.host[2].wlan.mac  RadioState  ETV
attr enum  "IDLE=0, RECV=1, SLEEP=3, TRANSMIT=2"
attr enumname  RadioState
vector 34  Net80211_aodv.host[2].wlan.mac  State  ETV
attr enum  "BACKOFF=3, DEFER=1, IDLE=0, RECEIVE=8, WAITACK=4, WAITBROADCAST=5, WAITCTS=6, WAITDIFS=2, WAITSIFS=7"
attr enumname  Ieee80211Mac
vector 45  Net80211_aodv.host[3].wlan.mac  RadioState  ETV
attr enum  "IDLE=0, RECV=1, SLEEP=3, TRANSMIT=2"
attr enumname  RadioState
vector 44  Net80211_aodv.host[3].wlan.mac  State  ETV
attr enum  "BACKOFF=3, DEFER=1, IDLE=0, RECEIVE=8, WAITACK=4, WAITBROADCAST=5, WAITCTS=6, WAITDIFS=2, WAITSIFS=7"
attr enumname  Ieee80211Mac
vector 55  Net80211_aodv.host[4].wlan.mac  RadioState  ETV
attr enum  "IDLE=0, RECV=1, SLEEP=3, TRANSMIT=2"
attr enumname  RadioState
vector 54  Net80211_aodv.host[4].wlan.mac  State  ETV
attr enum  "BACKOFF=3, DEFER=1, IDLE=0, RECEIVE=8, WAITACK=4, WAITBROADCAST=5, WAITCTS=6, WAITDIFS=2, WAITSIFS=7"
attr enumname  Ieee80211Mac
vector 65  Net80211_aodv.host[5].wlan.mac  RadioState  ETV
attr enum  "IDLE=0, RECV=1, SLEEP=3, TRANSMIT=2"
attr enumname  RadioState
vector 64  Net80211_aodv.host[5].wlan.mac  State  ETV
attr enum  "BACKOFF=3, DEFER=1, IDLE=0, RECEIVE=8, WAITACK=4, WAITBROADCAST=5, WAITCTS=6, WAITDIFS=2, WAITSIFS=7"
attr enumname  Ieee80211Mac
vector 75  Net80211_aodv.host[6].wlan.mac  RadioState  ETV
attr enum  "IDLE=0, RECV=1, SLEEP=3, TRANSMIT=2"
attr enumname  RadioState
vector 74  Net80211_aodv.host[6].wlan.mac  State  ETV
attr enum  "BACKOFF=3, DEFER=1, IDLE=0, RECEIVE=8, WAITACK=4, WAITBROADCAST=5, WAITCTS=6, WAITDIFS=2, WAITSIFS=7"
attr enumname  Ieee80211Mac
vector 85  Net80211_aodv.host[7].wlan.mac  RadioState  ETV
attr enum  "IDLE=0, RECV=1, SLEEP=3, TRANSMIT=2"
attr enumname  RadioState
vector 84  Net80211_aodv.host[7].wlan.mac  State  ETV
attr enum  "BACKOFF=3, DEFER=1, IDLE=0, RECEIVE=8, WAITACK=4, WAITBROADCAST=5, WAITCTS=6, WAITDIFS=2, WAITSIFS=7"
attr enumname  Ieee80211Mac
vector 95  Net80211_aodv.host[8].wlan.mac  RadioState  ETV
attr enum  "IDLE=0, RECV=1, SLEEP=3, TRANSMIT=2"
attr enumname  RadioState
vector 94  Net80211_aodv.host[8].wlan.mac  State  ETV
attr enum  "BACKOFF=3, DEFER=1, IDLE=0, RECEIVE=8, WAITACK=4, WAITBROADCAST=5, WAITCTS=6, WAITDIFS=2, WAITSIFS=7"
attr enumname  Ieee80211Mac
vector 105  Net80211_aodv.host[9].wlan.mac  RadioState  ETV
attr enum  "IDLE=0, RECV=1, SLEEP=3, TRANSMIT=2"
attr enumname  RadioState
vector 104  Net80211_aodv.host[9].wlan.mac  State  ETV
attr enum  "BACKOFF=3, DEFER=1, IDLE=0, RECEIVE=8, WAITACK=4, WAITBROADCAST=5, WAITCTS=6, WAITDIFS=2, WAITSIFS=7"
attr enumname  Ieee80211Mac
vector 115  Net80211_aodv.host[10].wlan.mac  RadioState  ETV
attr enum  "IDLE=0, RECV=1, SLEEP=3, TRANSMIT=2"
attr enumname  RadioState
vector 114  Net80211_aodv.host[10].wlan.mac  State  ETV
attr enum  "BACKOFF=3, DEFER=1, IDLE=0, RECEIVE=8, WAITACK=4, WAITBROADCAST=5, WAITCTS=6, WAITDIFS=2, WAITSIFS=7"
attr enumname  Ieee80211Mac
vector 125  Net80211_aodv.host[11].wlan.mac  RadioState  ETV
attr enum  "IDLE=0, RECV=1, SLEEP=3, TRANSMIT=2"
attr enumname  RadioState
vector 124  Net80211_aodv.host[11].wlan.mac  State  ETV
attr enum  "BACKOFF=3, DEFER=1, IDLE=0, RECEIVE=8, WAITACK=4, WAITBROADCAST=5, WAITCTS=6, WAITDIFS=2, WAITSIFS=7"
attr enumname  Ieee80211Mac
vector 135  Net80211_aodv.host[12].wlan.mac  RadioState  ETV
attr enum  "IDLE=0, RECV=1, SLEEP=3, TRANSMIT=2"
attr enumname  RadioState
vector 134  Net80211_aodv.host[12].wlan.mac  State  ETV
attr enum  "BACKOFF=3, DEFER=1, IDLE=0, RECEIVE=8, WAITACK=4, WAITBROADCAST=5, WAITCTS=6, WAITDIFS=2, WAITSIFS=7"
attr enumname  Ieee80211Mac
vector 145  Net80211_aodv.host[13].wlan.mac  RadioState  ETV
attr enum  "IDLE=0, RECV=1, SLEEP=3, TRANSMIT=2"
attr enumname  RadioState
vector 144  Net80211_aodv.host[13].wlan.mac  State  ETV
attr enum  "BACKOFF=3, DEFER=1, IDLE=0, RECEIVE=8, WAITACK=4, WAITBROADCAST=5, WAITCTS=6, WAITDIFS=2, WAITSIFS=7"
attr enumname  Ieee80211Mac
vector 155  Net80211_aodv.host[14].wlan.mac  RadioState  ETV
attr enum  "IDLE=0, RECV=1, SLEEP=3, TRANSMIT=2"
attr enumname  RadioState
vector 154  Net80211_aodv.host[14].wlan.mac  State  ETV
attr enum  "BACKOFF=3, DEFER=1, IDLE=0, RECEIVE=8, WAITACK=4, WAITBROADCAST=5, WAITCTS=6, WAITDIFS=2, WAITSIFS=7"
attr enumname  Ieee80211Mac
vector 165  Net80211_aodv.host[15].wlan.mac  RadioState  ETV
attr enum  "IDLE=0, RECV=1, SLEEP=3, TRANSMIT=2"
attr enumname  RadioState
vector 164  Net80211_aodv.host[15].wlan.mac  State  ETV
attr enum  "BACKOFF=3, DEFER=1, IDLE=0, RECEIVE=8, WAITACK=4, WAITBROADCAST=5, WAITCTS=6, WAITDIFS=2, WAITSIFS=7"
attr enumname  Ieee80211Mac
vector 175  Net80211_aodv.host[16].wlan.mac  RadioState  ETV
attr enum  "IDLE=0, RECV=1, SLEEP=3, TRANSMIT=2"
attr enumname  RadioState
vector 174  Net80211_aodv.host[16].wlan.mac  State  ETV
attr enum  "BACKOFF=3, DEFER=1, IDLE=0, RECEIVE=8, WAITACK=4, WAITBROADCAST=5, WAITCTS=6, WAITDIFS=2, WAITSIFS=7"
attr enumname  Ieee80211Mac
vector 185  Net80211_aodv.host[17].wlan.mac  RadioState  ETV
attr enum  "IDLE=0, RECV=1, SLEEP=3, TRANSMIT=2"
attr enumname  RadioState
vector 184  Net80211_aodv.host[17].wlan.mac  State  ETV
attr enum  "BACKOFF=3, DEFER=1, IDLE=0, RECEIVE=8, WAITACK=4, WAITBROADCAST=5, WAITCTS=6, WAITDIFS=2, WAITSIFS=7"
attr enumname  Ieee80211Mac
vector 195  Net80211_aodv.host[18].wlan.mac  RadioState  ETV
attr enum  "IDLE=0, RECV=1, SLEEP=3, TRANSMIT=2"
attr enumname  RadioState
vector 194  Net80211_aodv.host[18].wlan.mac  State  ETV
attr enum  "BACKOFF=3, DEFER=1, IDLE=0, RECEIVE=8, WAITACK=4, WAITBROADCAST=5, WAITCTS=6, WAITDIFS=2, WAITSIFS=7"
attr enumname  Ieee80211Mac
vector 205  Net80211_aodv.host[19].wlan.mac  RadioState  ETV
attr enum  "IDLE=0, RECV=1, SLEEP=3, TRANSMIT=2"
attr enumname  RadioState
vector 204  Net80211_aodv.host[19].wlan.mac  State  ETV
attr enum  "BACKOFF=3, DEFER=1, IDLE=0, RECEIVE=8, WAITACK=4, WAITBROADCAST=5, WAITCTS=6, WAITDIFS=2, WAITSIFS=7"
attr enumname  Ieee80211Mac
vector 215  Net80211_aodv.host[20].wlan.mac  RadioState  ETV
attr enum  "IDLE=0, RECV=1, SLEEP=3, TRANSMIT=2"
attr enumname  RadioState
vector 214  Net80211_aodv.host[20].wlan.mac  State  ETV
attr enum  "BACKOFF=3, DEFER=1, IDLE=0, RECEIVE=8, WAITACK=4, WAITBROADCAST=5, WAITCTS=6, WAITDIFS=2, WAITSIFS=7"
attr enumname  Ieee80211Mac
vector 225  Net80211_aodv.host[21].wlan.mac  RadioState  ETV
attr enum  "IDLE=0, RECV=1, SLEEP=3, TRANSMIT=2"
attr enumname  RadioState
vector 224  Net80211_aodv.host[21].wlan.mac  State  ETV
attr enum  "BACKOFF=3, DEFER=1, IDLE=0, RECEIVE=8, WAITACK=4, WAITBROADCAST=5, WAITCTS=6, WAITDIFS=2, WAITSIFS=7"
attr enumname  Ieee80211Mac
vector 235  Net80211_aodv.host[22].wlan.mac  RadioState  ETV
attr enum  "IDLE=0, RECV=1, SLEEP=3, TRANSMIT=2"
attr enumname  RadioState
vector 234  Net80211_aodv.host[22].wlan.mac  State  ETV
attr enum  "BACKOFF=3, DEFER=1, IDLE=0, RECEIVE=8, WAITACK=4, WAITBROADCAST=5, WAITCTS=6, WAITDIFS=2, WAITSIFS=7"
attr enumname  Ieee80211Mac
vector 245  Net80211_aodv.host[23].wlan.mac  RadioState  ETV
attr enum  "IDLE=0, RECV=1, SLEEP=3, TRANSMIT=2"
attr enumname  RadioState
vector 244  Net80211_aodv.host[23].wlan.mac  State  ETV
attr enum  "BACKOFF=3, DEFER=1, IDLE=0, RECEIVE=8, WAITACK=4, WAITBROADCAST=5, WAITCTS=6, WAITDIFS=2, WAITSIFS=7"
attr enumname  Ieee80211Mac
vector 255  Net80211_aodv.host[24].wlan.mac  RadioState  ETV
attr enum  "IDLE=0, RECV=1, SLEEP=3, TRANSMIT=2"
attr enumname  RadioState
vector 254  Net80211_aodv.host[24].wlan.mac  State  ETV
attr enum  "BACKOFF=3, DEFER=1, IDLE=0, RECEIVE=8, WAITACK=4, WAITBROADCAST=5, WAITCTS=6, WAITDIFS=2, WAITSIFS=7"
attr enumname  Ieee80211Mac
vector 265  Net80211_aodv.host[25].wlan.mac  RadioState  ETV
attr enum  "IDLE=0, RECV=1, SLEEP=3, TRANSMIT=2"
attr enumname  RadioState
vector 264  Net80211_aodv.host[25].wlan.mac  State  ETV
attr enum  "BACKOFF=3, DEFER=1, IDLE=0, RECEIVE=8, WAITACK=4, WAITBROADCAST=5, WAITCTS=6, WAITDIFS=2, WAITSIFS=7"
attr enumname  Ieee80211Mac
vector 275  Net80211_aodv.host[26].wlan.mac  RadioState  ETV
attr enum  "IDLE=0, RECV=1, SLEEP=3, TRANSMIT=2"
attr enumname  RadioState
vector 274  Net80211_aodv.host[26].wlan.mac  State  ETV
attr enum  "BACKOFF=3, DEFER=1, IDLE=0, RECEIVE=8, WAITACK=4, WAITBROADCAST=5, WAITCTS=6, WAITDIFS=2, WAITSIFS=7"
attr enumname  Ieee80211Mac
vector 285  Net80211_aodv.host[27].wlan.mac  RadioState  ETV
attr enum  "IDLE=0, RECV=1, SLEEP=3, TRANSMIT=2"
attr enumname  RadioState
vector 284  Net80211_aodv.host[27].wlan.mac  State  ETV
attr enum  "BACKOFF=3, DEFER=1, IDLE=0, RECEIVE=8, WAITACK=4, WAITBROADCAST=5, WAITCTS=6, WAITDIFS=2, WAITSIFS=7"
attr enumname  Ieee80211Mac
vector 295  Net80211_aodv.host[28].wlan.mac  RadioState  ETV
attr enum  "IDLE=0, RECV=1, SLEEP=3, TRANSMIT=2"
attr enumname  RadioState
vector 294  Net80211_aodv.host[28].wlan.mac  State  ETV
attr enum  "BACKOFF=3, DEFER=1, IDLE=0, RECEIVE=8, WAITACK=4, WAITBROADCAST=5, WAITCTS=6, WAITDIFS=2, WAITSIFS=7"
attr enumname  Ieee80211Mac
vector 305  Net80211_aodv.host[29].wlan.mac  RadioState  ETV
attr enum  "IDLE=0, RECV=1, SLEEP=3, TRANSMIT=2"
attr enumname  RadioState
vector 304  Net80211_aodv.host[29].wlan.mac  State  ETV
attr enum  "BACKOFF=3, DEFER=1, IDLE=0, RECEIVE=8, WAITACK=4, WAITBROADCAST=5, WAITCTS=6, WAITDIFS=2, WAITSIFS=7"
attr enumname  Ieee80211Mac
vector 315  Net80211_aodv.host[30].wlan.mac  RadioState  ETV
attr enum  "IDLE=0, RECV=1, SLEEP=3, TRANSMIT=2"
attr enumname  RadioState
vector 314  Net80211_aodv.host[30].wlan.mac  State  ETV
attr enum  "BACKOFF=3, DEFER=1, IDLE=0, RECEIVE=8, WAITACK=4, WAITBROADCAST=5, WAITCTS=6, WAITDIFS=2, WAITSIFS=7"
attr enumname  Ieee80211Mac
vector 325  Net80211_aodv.host[31].wlan.mac  RadioState  ETV
attr enum  "IDLE=0, RECV=1, SLEEP=3, TRANSMIT=2"
attr enumname  RadioState
vector 324  Net80211_aodv.host[31].wlan.mac  State  ETV
attr enum  "BACKOFF=3, DEFER=1, IDLE=0, RECEIVE=8, WAITACK=4, WAITBROADCAST=5, WAITCTS=6, WAITDIFS=2, WAITSIFS=7"
attr enumname  Ieee80211Mac
vector 335  Net80211_aodv.host[32].wlan.mac  RadioState  ETV
attr enum  "IDLE=0, RECV=1, SLEEP=3, TRANSMIT=2"
attr enumname  RadioState
vector 334  Net80211_aodv.host[32].wlan.mac  State  ETV
attr enum  "BACKOFF=3, DEFER=1, IDLE=0, RECEIVE=8, WAITACK=4, WAITBROADCAST=5, WAITCTS=6, WAITDIFS=2, WAITSIFS=7"
attr enumname  Ieee80211Mac
vector 345  Net80211_aodv.host[33].wlan.mac  RadioState  ETV
attr enum  "IDLE=0, RECV=1, SLEEP=3, TRANSMIT=2"
attr enumname  RadioState
vector 344  Net80211_aodv.host[33].wlan.mac  State  ETV
attr enum  "BACKOFF=3, DEFER=1, IDLE=0, RECEIVE=8, WAITACK=4, WAITBROADCAST=5, WAITCTS=6, WAITDIFS=2, WAITSIFS=7"
attr enumname  Ieee80211Mac
vector 355  Net80211_aodv.host[34].wlan.mac  RadioState  ETV
attr enum  "IDLE=0, RECV=1, SLEEP=3, TRANSMIT=2"
attr enumname  RadioState
vector 354  Net80211_aodv.host[34].wlan.mac  State  ETV
attr enum  "BACKOFF=3, DEFER=1, IDLE=0, RECEIVE=8, WAITACK=4, WAITBROADCAST=5, WAITCTS=6, WAITDIFS=2, WAITSIFS=7"
attr enumname  Ieee80211Mac
vector 365  Net80211_aodv.host[35].wlan.mac  RadioState  ETV
attr enum  "IDLE=0, RECV=1, SLEEP=3, TRANSMIT=2"
attr enumname  RadioState
vector 364  Net80211_aodv.host[35].wlan.mac  State  ETV
attr enum  "BACKOFF=3, DEFER=1, IDLE=0, RECEIVE=8, WAITACK=4, WAITBROADCAST=5, WAITCTS=6, WAITDIFS=2, WAITSIFS=7"
attr enumname  Ieee80211Mac
vector 375  Net80211_aodv.host[36].wlan.mac  RadioState  ETV
attr enum  "IDLE=0, RECV=1, SLEEP=3, TRANSMIT=2"
attr enumname  RadioState
vector 374  Net80211_aodv.host[36].wlan.mac  State  ETV
attr enum  "BACKOFF=3, DEFER=1, IDLE=0, RECEIVE=8, WAITACK=4, WAITBROADCAST=5, WAITCTS=6, WAITDIFS=2, WAITSIFS=7"
attr enumname  Ieee80211Mac
vector 385  Net80211_aodv.host[37].wlan.mac  RadioState  ETV
attr enum  "IDLE=0, RECV=1, SLEEP=3, TRANSMIT=2"
attr enumname  RadioState
vector 384  Net80211_aodv.host[37].wlan.mac  State  ETV
attr enum  "BACKOFF=3, DEFER=1, IDLE=0, RECEIVE=8, WAITACK=4, WAITBROADCAST=5, WAITCTS=6, WAITDIFS=2, WAITSIFS=7"
attr enumname  Ieee80211Mac
vector 395  Net80211_aodv.host[38].wlan.mac  RadioState  ETV
attr enum  "IDLE=0, RECV=1, SLEEP=3, TRANSMIT=2"
attr enumname  RadioState
vector 394  Net80211_aodv.host[38].wlan.mac  State  ETV
attr enum  "BACKOFF=3, DEFER=1, IDLE=0, RECEIVE=8, WAITACK=4, WAITBROADCAST=5, WAITCTS=6, WAITDIFS=2, WAITSIFS=7"
attr enumname  Ieee80211Mac
vector 405  Net80211_aodv.host[39].wlan.mac  RadioState  ETV
attr enum  "IDLE=0, RECV=1, SLEEP=3, TRANSMIT=2"
attr enumname  RadioState
vector 404  Net80211_aodv.host[39].wlan.mac  State  ETV
attr enum  "BACKOFF=3, DEFER=1, IDLE=0, RECEIVE=8, WAITACK=4, WAITBROADCAST=5, WAITCTS=6, WAITDIFS=2, WAITSIFS=7"
attr enumname  Ieee80211Mac
vector 415  Net80211_aodv.host[40].wlan.mac  RadioState  ETV
attr enum  "IDLE=0, RECV=1, SLEEP=3, TRANSMIT=2"
attr enumname  RadioState
vector 414  Net80211_aodv.host[40].wlan.mac  State  ETV
attr enum  "BACKOFF=3, DEFER=1, IDLE=0, RECEIVE=8, WAITACK=4, WAITBROADCAST=5, WAITCTS=6, WAITDIFS=2, WAITSIFS=7"
attr enumname  Ieee80211Mac
vector 425  Net80211_aodv.host[41].wlan.mac  RadioState  ETV
attr enum  "IDLE=0, RECV=1, SLEEP=3, TRANSMIT=2"
attr enumname  RadioState
vector 424  Net80211_aodv.host[41].wlan.mac  State  ETV
attr enum  "BACKOFF=3, DEFER=1, IDLE=0, RECEIVE=8, WAITACK=4, WAITBROADCAST=5, WAITCTS=6, WAITDIFS=2, WAITSIFS=7"
attr enumname  Ieee80211Mac
vector 435  Net80211_aodv.host[42].wlan.mac  RadioState  ETV
attr enum  "IDLE=0, RECV=1, SLEEP=3, TRANSMIT=2"
attr enumname  RadioState
vector 434  Net80211_aodv.host[42].wlan.mac  State  ETV
attr enum  "BACKOFF=3, DEFER=1, IDLE=0, RECEIVE=8, WAITACK=4, WAITBROADCAST=5, WAITCTS=6, WAITDIFS=2, WAITSIFS=7"
attr enumname  Ieee80211Mac
vector 445  Net80211_aodv.host[43].wlan.mac  RadioState  ETV
attr enum  "IDLE=0, RECV=1, SLEEP=3, TRANSMIT=2"
attr enumname  RadioState
vector 444  Net80211_aodv.host[43].wlan.mac  State  ETV
attr enum  "BACKOFF=3, DEFER=1, IDLE=0, RECEIVE=8, WAITACK=4, WAITBROADCAST=5, WAITCTS=6, WAITDIFS=2, WAITSIFS=7"
attr enumname  Ieee80211Mac
vector 455  Net80211_aodv.host[44].wlan.mac  RadioState  ETV
attr enum  "IDLE=0, RECV=1, SLEEP=3, TRANSMIT=2"
attr enumname  RadioState
vector 454  Net80211_aodv.host[44].wlan.mac  State  ETV
attr enum  "BACKOFF=3, DEFER=1, IDLE=0, RECEIVE=8, WAITACK=4, WAITBROADCAST=5, WAITCTS=6, WAITDIFS=2, WAITSIFS=7"
attr enumname  Ieee80211Mac
vector 465  Net80211_aodv.host[45].wlan.mac  RadioState  ETV
attr enum  "IDLE=0, RECV=1, SLEEP=3, TRANSMIT=2"
attr enumname  RadioState
vector 464  Net80211_aodv.host[45].wlan.mac  State  ETV
attr enum  "BACKOFF=3, DEFER=1, IDLE=0, RECEIVE=8, WAITACK=4, WAITBROADCAST=5, WAITCTS=6, WAITDIFS=2, WAITSIFS=7"
attr enumname  Ieee80211Mac
vector 475  Net80211_aodv.host[46].wlan.mac  RadioState  ETV
attr enum  "IDLE=0, RECV=1, SLEEP=3, TRANSMIT=2"
attr enumname  RadioState
vector 474  Net80211_aodv.host[46].wlan.mac  State  ETV
attr enum  "BACKOFF=3, DEFER=1, IDLE=0, RECEIVE=8, WAITACK=4, WAITBROADCAST=5, WAITCTS=6, WAITDIFS=2, WAITSIFS=7"
attr enumname  Ieee80211Mac
vector 485  Net80211_aodv.host[47].wlan.mac  RadioState  ETV
attr enum  "IDLE=0, RECV=1, SLEEP=3, TRANSMIT=2"
attr enumname  RadioState
vector 484  Net80211_aodv.host[47].wlan.mac  State  ETV
attr enum  "BACKOFF=3, DEFER=1, IDLE=0, RECEIVE=8, WAITACK=4, WAITBROADCAST=5, WAITCTS=6, WAITDIFS=2, WAITSIFS=7"
attr enumname  Ieee80211Mac
vector 495  Net80211_aodv.host[48].wlan.mac  RadioState  ETV
attr enum  "IDLE=0, RECV=1, SLEEP=3, TRANSMIT=2"
attr enumname  RadioState
vector 494  Net80211_aodv.host[48].wlan.mac  State  ETV
attr enum  "BACKOFF=3, DEFER=1, IDLE=0, RECEIVE=8, WAITACK=4, WAITBROADCAST=5, WAITCTS=6, WAITDIFS=2, WAITSIFS=7"
attr enumname  Ieee80211Mac
vector 505  Net80211_aodv.host[49].wlan.mac  RadioState  ETV
attr enum  "IDLE=0, RECV=1, SLEEP=3, TRANSMIT=2"
attr enumname  RadioState
vector 504  Net80211_aodv.host[49].wlan.mac  State  ETV
attr enum  "BACKOFF=3, DEFER=1, IDLE=0, RECEIVE=8, WAITACK=4, WAITBROADCAST=5, WAITCTS=6, WAITDIFS=2, WAITSIFS=7"
attr enumname  Ieee80211Mac
vector 29  Net80211_aodv.host[1].wlan.radio  snirVector  ETV
vector 26  Net80211_aodv.host[1].wlan.mac  ReceiveBcastVector  ETV
vector 239  Net80211_aodv.host[22].wlan.radio  snirVector  ETV
vector 236  Net80211_aodv.host[22].wlan.mac  ReceiveBcastVector  ETV
vector 249  Net80211_aodv.host[23].wlan.radio  snirVector  ETV
vector 246  Net80211_aodv.host[23].wlan.mac  ReceiveBcastVector  ETV
vector 179  Net80211_aodv.host[16].wlan.radio  snirVector  ETV
vector 176  Net80211_aodv.host[16].wlan.mac  ReceiveBcastVector  ETV
vector 49  Net80211_aodv.host[3].wlan.radio  snirVector  ETV
vector 46  Net80211_aodv.host[3].wlan.mac  ReceiveBcastVector  ETV
vector 189  Net80211_aodv.host[17].wlan.radio  snirVector  ETV
vector 499  Net80211_aodv.host[48].wlan.radio  snirVector  ETV
vector 496  Net80211_aodv.host[48].wlan.mac  ReceiveBcastVector  ETV
vector 17  Net80211_aodv.host[0].wlan.mac  "Contention Window"  ETV
vector 186  Net80211_aodv.host[17].wlan.mac  ReceiveBcastVector  ETV
vector 19  Net80211_aodv.host[0].wlan.radio  snirVector  ETV
vector 16  Net80211_aodv.host[0].wlan.mac  ReceiveBcastVector  ETV
vector 69  Net80211_aodv.host[5].wlan.radio  snirVector  ETV
vector 66  Net80211_aodv.host[5].wlan.mac  ReceiveBcastVector  ETV
vector 149  Net80211_aodv.host[13].wlan.radio  snirVector  ETV
vector 146  Net80211_aodv.host[13].wlan.mac  ReceiveBcastVector  ETV
vector 27  Net80211_aodv.host[1].wlan.mac  "Contention Window"  ETV
vector 329  Net80211_aodv.host[31].wlan.radio  snirVector  ETV
vector 326  Net80211_aodv.host[31].wlan.mac  ReceiveBcastVector  ETV
vector 369  Net80211_aodv.host[35].wlan.radio  snirVector  ETV
vector 366  Net80211_aodv.host[35].wlan.mac  ReceiveBcastVector  ETV
vector 469  Net80211_aodv.host[45].wlan.radio  snirVector  ETV
vector 466  Net80211_aodv.host[45].wlan.mac  ReceiveBcastVector  ETV
vector 129  Net80211_aodv.host[11].wlan.radio  snirVector  ETV
vector 126  Net80211_aodv.host[11].wlan.mac  ReceiveBcastVector  ETV
vector 339  Net80211_aodv.host[32].wlan.radio  snirVector  ETV
vector 336  Net80211_aodv.host[32].wlan.mac  ReceiveBcastVector  ETV
vector 99  Net80211_aodv.host[8].wlan.radio  snirVector  ETV
vector 96  Net80211_aodv.host[8].wlan.mac  ReceiveBcastVector  ETV
vector 479  Net80211_aodv.host[46].wlan.radio  snirVector  ETV
vector 476  Net80211_aodv.host[46].wlan.mac  ReceiveBcastVector  ETV
vector 429  Net80211_aodv.host[41].wlan.radio  snirVector  ETV
vector 426  Net80211_aodv.host[41].wlan.mac  ReceiveBcastVector  ETV
vector 379  Net80211_aodv.host[36].wlan.radio  snirVector  ETV
vector 376  Net80211_aodv.host[36].wlan.mac  ReceiveBcastVector  ETV
vector 389  Net80211_aodv.host[37].wlan.radio  snirVector  ETV
vector 386  Net80211_aodv.host[37].wlan.mac  ReceiveBcastVector  ETV
vector 219  Net80211_aodv.host[20].wlan.radio  snirVector  ETV
vector 216  Net80211_aodv.host[20].wlan.mac  ReceiveBcastVector  ETV
vector 159  Net80211_aodv.host[14].wlan.radio  snirVector  ETV
vector 156  Net80211_aodv.host[14].wlan.mac  ReceiveBcastVector  ETV
vector 79  Net80211_aodv.host[6].wlan.radio  snirVector  ETV
vector 76  Net80211_aodv.host[6].wlan.mac  ReceiveBcastVector  ETV
vector 47  Net80211_aodv.host[3].wlan.mac  "Contention Window"  ETV
vector 177  Net80211_aodv.host[16].wlan.mac  "Contention Window"  ETV
4	0	0	0
4	0	0	0
4	0	0	0
4	0	0	0
5	0	0	0
5	0	0	0
14	0	0	0
14	0	0	0
14	0	0	0
14	0	0	0
14	528	10.003874270456	0
14	528	10.003874270456	0
14	528	10.003874270456	2
14	528	10.003874270456	2
14	529	10.003902270456	2
14	529	10.003902270456	2
14	529	10.003902270456	5
14	529	10.003902270456	5
14	530	10.003902270456	5
14	530	10.003902270456	5
14	530	10.003902270456	5
14	530	10.003902270456	5
14	581	10.003944270456	5
14	581	10.003944270456	5
14	581	10.003944270456	1
14	581	10.003944270456	1
14	582	10.003944270456	1
14	582	10.003944270456	1
14	582	10.003944270456	2
14	582	10.003944270456	2
14	670	10.003972270456	2
14	670	10.003972270456	2
14	670	10.003972270456	3
14	670	10.003972270456	3
14	671	10.004044270456	3
14	671	10.004044270456	3
14	671	10.004044270456	0
14	671	10.004044270456	0
14	687	10.005123729285	0
14	687	10.005123729285	0
14	687	10.005123729285	0
14	687	10.005123729285	0
14	754	10.005165729285	0
14	754	10.005165729285	0
14	754	10.005165729285	0
14	754	10.005165729285	0
14	755	10.005165729285	0
14	755	10.005165729285	0
14	755	10.005165729285	0
14	755	10.005165729285	0
14	871	10.00588142371	0
14	871	10.00588142371	0
14	871	10.00588142371	0
14	871	10.00588142371	0
14	986	10.00592342371	0
14	986	10.00592342371	0
14	986	10.00592342371	0
14	986	10.00592342371	0
14	987	10.00592342371	0
14	987	10.00592342371	0
14	987	10.00592342371	0
14	987	10.00592342371	0
14	1104	10.006824949549	0
14	1104	10.006824949549	0
14	1104	10.006824949549	0
14	1104	10.006824949549	0
14	1180	10.006866949549	0
14	1180	10.006866949549	0
14	1180	10.006866949549	0
14	1180	10.006866949549	0
14	1181	10.006866949549	0
14	1181	10.006866949549	0
14	1181	10.006866949549	0
14	1181	10.006866949549	0
15	0	0	0
15	0	0	0
15	530	10.003902270456	0
15	530	10.003902270456	2
15	582	10.003944270456	2
15	582	10.003944270456	0
15	687	10.005123729285	0
15	687	10.005123729285	1
15	754	10.005165729285	1
15	754	10.005165729285	0
15	871	10.00588142371	0
15	871	10.00588142371	1
15	986	10.00592342371	1
15	986	10.00592342371	0
15	1104	10.006824949549	0
15	1104	10.006824949549	1
15	1180	10.006866949549	1
15	1180	10.006866949549	0
16	755	10.005165729285	1.9190086920601e-05
17	670	10.003972270456	8
19	754	10.005165729285	25.823230428912
24	0	0	0
24	0	0	0
24	0	0	0
24	0	0	0
24	531	10.003903028915	0
24	531	10.003903028915	0
24	531	10.003903028915	0
24	531	10.003903028915	0
24	583	10.003945028915	0
24	583	10.003945028915	0
24	583	10.003945028915	0
24	583	10.003945028915	0
24	584	10.003945028915	0
24	584	10.003945028915	0
24	584	10.003945028915	0
24	584	10.003945028915	0
24	679	10.005094970826	0
24	679	10.005094970826	0
24	679	10.005094970826	2
24	679	10.005094970826	2
24	680	10.005122970826	2
24	680	10.005122970826	2
24	680	10.005122970826	5
24	680	10.005122970826	5
24	681	10.005122970826	5
24	681	10.005122970826	5
24	681	10.005122970826	5
24	681	10.005122970826	5
24	732	10.005164970826	5
24	732	10.005164970826	5
24	732	10.005164970826	1
24	732	10.005164970826	1
24	733	10.005164970826	1
24	733	10.005164970826	1
24	733	10.005164970826	2
24	733	10.005164970826	2
24	838	10.005192970826	2
24	838	10.005192970826	2
24	838	10.005192970826	3
24	838	10.005192970826	3
24	839	10.005444970826	3
24	839	10.005444970826	3
24	839	10.005444970826	0
24	839	10.005444970826	0
24	857	10.005881063454	0
24	857	10.005881063454	0
24	857	10.005881063454	0
24	857	10.005881063454	0
24	930	10.005923063454	0
24	930	10.005923063454	0
24	930	10.005923063454	0
24	930	10.005923063454	0
24	931	10.005923063454	0
24	931	10.005923063454	0
24	931	10.005923063454	0
24	931	10.005923063454	0
24	1098	10.006824341067	0
24	1098	10.006824341067	0
24	1098	10.006824341067	0
24	1098	10.006824341067	0
24	1156	10.006866341067	0
24	1156	10.006866341067	0
24	1156	10.006866341067	0
24	1156	10.006866341067	0
24	1157	10.006866341067	0
24	1157	10.006866341067	0
24	1157	10.006866341067	0
24	1157	10.006866341067	0
25	0	0	0
25	0	0	0
25	531	10.003903028915	0
25	531	10.003903028915	1
25	583	10.003945028915	1
25	583	10.003945028915	0
25	681	10.005122970826	0
25	681	10.005122970826	2
25	733	10.005164970826	2
25	733	10.005164970826	0
25	857	10.005881063454	0
25	857	10.005881063454	1
25	930	10.005923063454	1
25	930	10.005923063454	0
25	1098	10.006824341067	0
25	1098	10.006824341067	1
25	1156	10.006866341067	1
25	1156	10.006866341067	0
26	584	10.003945028915	1.9192428531449e-05
27	838	10.005192970826	28
29	583	10.003945028915	25.823230428912
34	0	0	0
34	0	0	0
34	0	0	0
34	0	0	0
35	0	0	0
35	0	0	0
44	0	0	0
44	0	0	0
44	0	0	0
44	0	0	0
44	535	10.003903660493	0
44	535	10.003903660493	0
44	535	10.003903660493	0
44	535	10.003903660493	0
44	599	10.003945660493	0
44	599	10.003945660493	0
44	599	10.003945660493	0
44	599	10.003945660493	0
44	600	10.003945660493	0
44	600	10.003945660493	0
44	600	10.003945660493	0
44	600	10.003945660493	0
44	690	10.005124000607	0
44	690	10.005124000607	0
44	690	10.005124000607	0
44	690	10.005124000607	0
44	766	10.005166000607	0
44	766	10.005166000607	0
44	766	10.005166000607	0
44	766	10.005166000607	0
44	767	10.005166000607	0
44	767	10.005166000607	0
44	767	10.005166000607	0
44	767	10.005166000607	0
44	847	10.005852033673	0
44	847	10.005852033673	0
44	847	10.005852033673	2
44	847	10.005852033673	2
44	848	10.005880033673	2
44	848	10.005880033673	2
44	848	10.005880033673	5
44	848	10.005880033673	5
44	849	10.005880033673	5
44	849	10.005880033673	5
44	849	10.005880033673	5
44	849	10.005880033673	5
44	900	10.005922033673	5
44	900	10.005922033673	5
44	900	10.005922033673	1
44	900	10.005922033673	1
44	901	10.005922033673	1
44	901	10.005922033673	1
44	901	10.005922033673	2
44	901	10.005922033673	2
44	1084	10.005950033673	2
44	1084	10.005950033673	2
44	1084	10.005950033673	3
44	1084	10.005950033673	3
44	1085	10.006175033673	3
44	1085	10.006175033673	3
44	1085	10.006175033673	0
44	1085	10.006175033673	0
44	1101	10.006824392397	0
44	1101	10.006824392397	0
44	1101	10.006824392397	0
44	1101	10.006824392397	0
44	1168	10.006866392397	0
44	1168	10.006866392397	0
44	1168	10.006866392397	0
44	1168	10.006866392397	0
44	1169	10.006866392397	0
44	1169	10.006866392397	0
44	1169	10.006866392397	0
44	1169	10.006866392397	0
45	0	0	0
45	0	0	0
45	535	10.003903660493	0
45	535	10.003903660493	1
45	599	10.003945660493	1
45	599	10.003945660493	0
45	690	10.005124000607	0
45	690	10.005124000607	1
45	766	10.005166000607	1
45	766	10.005166000607	0
45	849	10.005880033673	0
45	849	10.005880033673	2
45	901	10.005922033673	2
45	901	10.005922033673	0
45	1101	10.006824392397	0
45	1101	10.006824392397	1
45	1168	10.006866392397	1
45	1168	10.006866392397	0
46	600	10.003945660493	1.9192427319776e-05
47	1084	10.005950033673	25
49	599	10.003945660493	20.561346435213
54	0	0	0
54	0	0	0
54	0	0	0
54	0	0	0
55	0	0	0
55	0	0	0
64	0	0	0
64	0	0	0
64	0	0	0
64	0	0	0
64	688	10.005123866361	0
64	688	10.005123866361	0
64	688	10.005123866361	0
64	688	10.005123866361	0
64	758	10.005165866361	0
64	758	10.005165866361	0
64	758	10.005165866361	0
64	758	10.005165866361	0
64	759	10.005165866361	0
64	759	10.005165866361	0
64	759	10.005165866361	0
64	759	10.005165866361	0
64	867	10.005881343381	0
64	867	10.005881343381	0
64	867	10.005881343381	0
64	867	10.005881343381	0
64	970	10.005923343381	0
64	970	10.005923343381	0
64	970	10.005923343381	0
64	970	10.005923343381	0
64	971	10.005923343381	0
64	971	10.005923343381	0
64	971	10.005923343381	0
64	971	10.005923343381	0
64	1103	10.006824624714	0
64	1103	10.006824624714	0
64	1103	10.006824624714	0
64	1103	10.006824624714	0
64	1176	10.006866624714	0
64	1176	10.006866624714	0
64	1176	10.006866624714	0
64	1176	10.006866624714	0
64	1177	10.006866624714	0
64	1177	10.006866624714	0
64	1177	10.006866624714	0
64	1177	10.006866624714	0
65	0	0	0
65	0	0	0
65	688	10.005123866361	0
65	688	10.005123866361	1
65	758	10.005165866361	1
65	758	10.005165866361	0
65	867	10.005881343381	0
65	867	10.005881343381	1
65	970	10.005923343381	1
65	970	10.005923343381	0
65	1103	10.006824624714	0
65	1103	10.006824624714	1
65	1176	10.006866624714	1
65	1176	10.006866624714	0
66	759	10.005165866361	1.9190086657687e-05
69	758	10.005165866361	24.380221192216
74	0	0	0
74	0	0	0
74	0	0	0
74	0	0	0
74	870	10.005881388229	0
74	870	10.005881388229	0
74	870	10.005881388229	0
74	870	10.005881388229	0
74	982	10.005923388229	0
74	982	10.005923388229	0
74	982	10.005923388229	0
74	982	10.005923388229	0
74	983	10.005923388229	0
74	983	10.005923388229	0
74	983	10.005923388229	0
74	983	10.005923388229	0
74	1108	10.006825110721	0
74	1108	10.006825110721	0
74	1108	10.006825110721	0
74	1108	10.006825110721	0
74	1194	10.006867110721	0
74	1194	10.006867110721	0
74	1194	10.006867110721	0
74	1194	10.006867110721	0
74	1195	10.006867110721	0
74	1195	10.006867110721	0
74	1195	10.006867110721	0
74	1195	10.006867110721	0
75	0	0	0
75	0	0	0
75	870	10.005881388229	0
75	870	10.005881388229	1
75	982	10.005923388229	1
75	982	10.005923388229	0
75	1108	10.006825110721	0
75	1108	10.006825110721	1
75	1194	10.006867110721	1
75	1194	10.006867110721	0
76	983	10.005923388229	1.9188633827226e-05
79	982	10.005923388229	20.785938068461
84	0	0	0
84	0	0	0
84	0	0	0
84	0	0	0
85	0	0	0
85	0	0	0
94	0	0	0
94	0	0	0
94	0	0	0
94	0	0	0
94	861	10.005881150517	0
94	861	10.005881150517	0
94	861	10.005881150517	0
94	861	10.005881150517	0
94	946	10.005923150517	0
94	946	10.005923150517	0
94	946	10.005923150517	0
94	946	10.005923150517	0
94	947	10.005923150517	0